
Predictions were generated on 27-Aug-2019 at 10:45:20 using AA 
 AeroAcoustics
Number of observers      :    1
     Time           	Obs1                
      (s)           	OASPL               
         0.1250	            NaN
         0.2500	            NaN
         0.3750	            NaN
         0.5000	            NaN
         0.6250	            NaN
         0.7500	            NaN
         0.8750	            NaN
         1.0000	            NaN
         1.1250	            NaN
         1.2500	            NaN
         1.3750	            NaN
         1.5000	            NaN
         1.6250	            NaN
         1.7500	            NaN
         1.8750	            NaN
         2.0000	            NaN
         2.1250	            NaN
         2.2500	            NaN
         2.3750	            NaN
         2.5000	            NaN
         2.6250	            NaN
         2.7500	            NaN
         2.8750	            NaN
         3.0000	            NaN
         3.1250	            NaN
         3.2500	            NaN
         3.3750	            NaN
         3.5000	            NaN
         3.6250	            NaN
         3.7500	            NaN
         3.8750	            NaN
         4.0000	            NaN
         4.1250	            NaN
         4.2500	            NaN
         4.3750	            NaN
         4.5000	            NaN
         4.6250	            NaN
         4.7500	            NaN
         4.8750	            NaN
         5.0000	            NaN
         5.1250	            NaN
         5.2500	            NaN
         5.3750	            NaN
         5.5000	            NaN
         5.6250	            NaN
         5.7500	            NaN
         5.8750	            NaN
         6.0000	            NaN
         6.1250	            NaN
         6.2500	            NaN
         6.3750	            NaN
         6.5000	            NaN
         6.6250	            NaN
         6.7500	            NaN
         6.8750	            NaN
         7.0000	            NaN
         7.1250	            NaN
         7.2500	            NaN
         7.3750	            NaN
         7.5000	            NaN
         7.6250	            NaN
         7.7500	            NaN
         7.8750	            NaN
         8.0000	            NaN
         8.1250	            NaN
         8.2500	            NaN
         8.3750	            NaN
         8.5000	            NaN
         8.6250	            NaN
         8.7500	            NaN
         8.8750	            NaN
         9.0000	            NaN
         9.1250	            NaN
         9.2500	            NaN
         9.3750	            NaN
         9.5000	            NaN
         9.6250	            NaN
         9.7500	            NaN
         9.8750	            NaN
        10.0000	            NaN
        10.1250	            NaN
        10.2500	            NaN
        10.3750	            NaN
        10.5000	            NaN
        10.6250	            NaN
        10.7500	            NaN
        10.8750	            NaN
        11.0000	            NaN
        11.1250	            NaN
        11.2500	            NaN
        11.3750	            NaN
        11.5000	            NaN
        11.6250	            NaN
        11.7500	            NaN
        11.8750	            NaN
        12.0000	            NaN
        12.1250	            NaN
        12.2500	            NaN
        12.3750	            NaN
        12.5000	            NaN
        12.6250	            NaN
        12.7500	            NaN
        12.8750	            NaN
        13.0000	            NaN
        13.1250	            NaN
        13.2500	            NaN
        13.3750	            NaN
        13.5000	            NaN
        13.6250	            NaN
        13.7500	            NaN
        13.8750	            NaN
        14.0000	            NaN
        14.1250	            NaN
        14.2500	            NaN
        14.3750	            NaN
        14.5000	            NaN
        14.6250	            NaN
        14.7500	            NaN
        14.8750	            NaN
        15.0000	            NaN
        15.1250	            NaN
        15.2500	            NaN
        15.3750	            NaN
        15.5000	            NaN
