
Predictions were generated on 27-Aug-2019 at 16:09:52 using AA 
 AeroAcoustics
Number of observers      :    1
Number of frequencies    :   34
     Time           	Obs1_Freq10         	Obs1_Freq12.5       	Obs1_Freq16         	Obs1_Freq20         	Obs1_Freq25         	Obs1_Freq31.5       	Obs1_Freq40         	Obs1_Freq50         	Obs1_Freq63         	Obs1_Freq80         	Obs1_Freq100        	Obs1_Freq125        	Obs1_Freq160        	Obs1_Freq200        	Obs1_Freq250        	Obs1_Freq315        	Obs1_Freq400        	Obs1_Freq500        	Obs1_Freq630        	Obs1_Freq800        	Obs1_Freq1000       	Obs1_Freq1250       	Obs1_Freq1600       	Obs1_Freq2000       	Obs1_Freq2500       	Obs1_Freq3150       	Obs1_Freq4000       	Obs1_Freq5000       	Obs1_Freq6300       	Obs1_Freq8000       	Obs1_Freq10000      	Obs1_Freq12500      	Obs1_Freq16000      	Obs1_Freq20000      
      (s)           	SPL                 	SPL                 	SPL                 	SPL                 	SPL                 	SPL                 	SPL                 	SPL                 	SPL                 	SPL                 	SPL                 	SPL                 	SPL                 	SPL                 	SPL                 	SPL                 	SPL                 	SPL                 	SPL                 	SPL                 	SPL                 	SPL                 	SPL                 	SPL                 	SPL                 	SPL                 	SPL                 	SPL                 	SPL                 	SPL                 	SPL                 	SPL                 	SPL                 	SPL                 
         0.1250	  3.677344E+001	  3.571359E+001	  3.460705E+001	  3.374720E+001	  3.313051E+001	  3.287620E+001	  3.311348E+001	  3.379402E+001	  3.487625E+001	  3.617293E+001	  3.714786E+001	  3.761769E+001	  3.752639E+001	  3.729567E+001	  3.715338E+001	  3.691201E+001	  3.632972E+001	  3.537804E+001	  3.376342E+001	  3.153870E+001	  2.973459E+001	  2.847480E+001	  2.762140E+001	  2.637703E+001	  2.421882E+001	  2.187424E+001	  1.940290E+001	  1.702789E+001	  1.457318E+001	  1.205657E+001	  9.631199E+000	  7.037497E+000	  3.901753E+000	  7.778678E-001
         0.2500	  3.675450E+001	  3.563316E+001	  3.439720E+001	  3.332644E+001	  3.237663E+001	  3.163964E+001	  3.131240E+001	  3.153759E+001	  3.232294E+001	  3.351501E+001	  3.466366E+001	  3.556450E+001	  3.586070E+001	  3.556721E+001	  3.511369E+001	  3.461466E+001	  3.399486E+001	  3.324241E+001	  3.208342E+001	  3.050011E+001	  2.918548E+001	  2.836621E+001	  2.781666E+001	  2.671025E+001	  2.465640E+001	  2.239562E+001	  2.000332E+001	  1.769395E+001	  1.528433E+001	  1.278296E+001	  1.035159E+001	  7.741868E+000	  4.583522E+000	  1.439137E+000
         0.3750	  3.693722E+001	  3.581960E+001	  3.459026E+001	  3.353037E+001	  3.259858E+001	  3.189539E+001	  3.163096E+001	  3.193021E+001	  3.274301E+001	  3.389272E+001	  3.506356E+001	  3.581413E+001	  3.586210E+001	  3.545836E+001	  3.498222E+001	  3.445387E+001	  3.385685E+001	  3.316065E+001	  3.203549E+001	  3.046803E+001	  2.917154E+001	  2.836993E+001	  2.782815E+001	  2.671786E+001	  2.466126E+001	  2.240622E+001	  2.001955E+001	  1.771609E+001	  1.531252E+001	  1.281407E+001	  1.038067E+001	  7.764849E+000	  4.595515E+000	  1.437142E+000
         0.5000	  3.728477E+001	  3.620009E+001	  3.504134E+001	  3.409823E+001	  3.335756E+001	  3.293746E+001	  3.299727E+001	  3.354013E+001	  3.453030E+001	  3.582069E+001	  3.678197E+001	  3.721432E+001	  3.703285E+001	  3.671829E+001	  3.652938E+001	  3.625022E+001	  3.567733E+001	  3.476915E+001	  3.326178E+001	  3.121868E+001	  2.959434E+001	  2.851795E+001	  2.780178E+001	  2.661391E+001	  2.449158E+001	  2.218228E+001	  1.974420E+001	  1.739809E+001	  1.496555E+001	  1.245807E+001	  1.002977E+001	  7.425912E+000	  4.273447E+000	  1.130590E+000
         0.6250	  3.776401E+001	  3.673363E+001	  3.568864E+001	  3.492957E+001	  3.447067E+001	  3.442787E+001	  3.487962E+001	  3.569770E+001	  3.684083E+001	  3.813469E+001	  3.900785E+001	  3.946387E+001	  3.965423E+001	  3.968663E+001	  3.952565E+001	  3.911335E+001	  3.845112E+001	  3.747047E+001	  3.599429E+001	  3.426383E+001	  3.276039E+001	  3.147163E+001	  3.025727E+001	  2.881815E+001	  2.674953E+001	  2.446929E+001	  2.200413E+001	  1.958514E+001	  1.700080E+001	  1.425833E+001	  1.158187E+001	  8.736742E+000	  5.343162E+000	  2.012362E+000
         0.7500	  3.801113E+001	  3.700715E+001	  3.600929E+001	  3.531257E+001	  3.492248E+001	  3.493728E+001	  3.540526E+001	  3.618682E+001	  3.724792E+001	  3.847979E+001	  3.952127E+001	  4.030616E+001	  4.082727E+001	  4.098301E+001	  4.079207E+001	  4.008093E+001	  3.881632E+001	  3.730790E+001	  3.570589E+001	  3.406583E+001	  3.260380E+001	  3.132827E+001	  3.009813E+001	  2.860021E+001	  2.641912E+001	  2.400132E+001	  2.137837E+001	  1.881115E+001	  1.610083E+001	  1.328440E+001	  1.059304E+001	  7.775589E+000	  4.447796E+000	  1.193464E+000
         0.8750	  3.805125E+001	  3.708332E+001	  3.613915E+001	  3.548871E+001	  3.509510E+001	  3.498879E+001	  3.519482E+001	  3.562441E+001	  3.623711E+001	  3.703394E+001	  3.786214E+001	  3.849577E+001	  3.851182E+001	  3.785782E+001	  3.675689E+001	  3.535901E+001	  3.372060E+001	  3.217139E+001	  3.058995E+001	  2.907910E+001	  2.799294E+001	  2.747182E+001	  2.716639E+001	  2.604332E+001	  2.379394E+001	  2.135158E+001	  1.878438E+001	  1.635852E+001	  1.392550E+001	  1.149759E+001	  9.171334E+000	  6.664749E+000	  3.596741E+000	  5.005754E-001
         1.0000	  3.820261E+001	  3.733965E+001	  3.656911E+001	  3.609885E+001	  3.586815E+001	  3.586784E+001	  3.604866E+001	  3.627979E+001	  3.647953E+001	  3.644612E+001	  3.601714E+001	  3.513397E+001	  3.371193E+001	  3.217576E+001	  3.059116E+001	  2.893368E+001	  2.721977E+001	  2.568969E+001	  2.437896E+001	  2.371073E+001	  2.402524E+001	  2.505612E+001	  2.583473E+001	  2.505398E+001	  2.284566E+001	  2.048539E+001	  1.804018E+001	  1.575401E+001	  1.348578E+001	  1.121247E+001	  8.988531E+000	  6.543422E+000	  3.506628E+000	  4.142312E-001
         1.1250	  3.866831E+001	  3.792575E+001	  3.735037E+001	  3.709814E+001	  3.710431E+001	  3.733216E+001	  3.766731E+001	  3.785264E+001	  3.767843E+001	  3.694974E+001	  3.581853E+001	  3.438058E+001	  3.264931E+001	  3.103583E+001	  2.938469E+001	  2.763833E+001	  2.583762E+001	  2.428651E+001	  2.312246E+001	  2.286511E+001	  2.365270E+001	  2.501741E+001	  2.596800E+001	  2.524417E+001	  2.305255E+001	  2.070547E+001	  1.827521E+001	  1.600093E+001	  1.374279E+001	  1.147924E+001	  9.264291E+000	  6.828066E+000	  3.801666E+000	  7.199198E-001
         1.2500	  3.884076E+001	  3.812364E+001	  3.758552E+001	  3.738935E+001	  3.747046E+001	  3.779161E+001	  3.821672E+001	  3.841357E+001	  3.816170E+001	  3.728112E+001	  3.602067E+001	  3.451698E+001	  3.276158E+001	  3.113784E+001	  2.947026E+001	  2.770175E+001	  2.587766E+001	  2.431544E+001	  2.317237E+001	  2.298275E+001	  2.384287E+001	  2.525597E+001	  2.624522E+001	  2.554436E+001	  2.336163E+001	  2.101393E+001	  1.858377E+001	  1.630780E+001	  1.404732E+001	  1.178541E+001	  9.576799E+000	  7.150173E+000	  4.137655E+000	  1.071761E+000
         1.3750	  3.837876E+001	  3.760719E+001	  3.698615E+001	  3.669008E+001	  3.665441E+001	  3.685354E+001	  3.719437E+001	  3.748238E+001	  3.749977E+001	  3.699196E+001	  3.595685E+001	  3.452685E+001	  3.279060E+001	  3.119167E+001	  2.955984E+001	  2.783698E+001	  2.606184E+001	  2.453034E+001	  2.337197E+001	  2.309731E+001	  2.385954E+001	  2.520358E+001	  2.614170E+001	  2.540993E+001	  2.321147E+001	  2.085842E+001	  1.842098E+001	  1.613992E+001	  1.387643E+001	  1.160943E+001	  9.391890E+000	  6.952888E+000	  3.922968E+000	  8.376213E-001
         1.5000	  3.777614E+001	  3.687600E+001	  3.603481E+001	  3.547134E+001	  3.511935E+001	  3.497037E+001	  3.499873E+001	  3.509375E+001	  3.519895E+001	  3.531626E+001	  3.525523E+001	  3.468092E+001	  3.334150E+001	  3.178787E+001	  3.022136E+001	  2.859717E+001	  2.693521E+001	  2.547568E+001	  2.426749E+001	  2.372818E+001	  2.414590E+001	  2.522965E+001	  2.602214E+001	  2.523717E+001	  2.302215E+001	  2.065622E+001	  1.820258E+001	  1.590782E+001	  1.363247E+001	  1.135386E+001	  9.125236E+000	  6.674864E+000	  3.631377E+000	  5.321495E-001
         1.6250	  3.744927E+001	  3.647701E+001	  3.553606E+001	  3.491190E+001	  3.459905E+001	  3.464557E+001	  3.507203E+001	  3.576362E+001	  3.668126E+001	  3.775814E+001	  3.880073E+001	  3.973401E+001	  4.043963E+001	  4.060382E+001	  4.014317E+001	  3.900934E+001	  3.741058E+001	  3.587012E+001	  3.427597E+001	  3.265717E+001	  3.126583E+001	  3.015840E+001	  2.916167E+001	  2.774278E+001	  2.549175E+001	  2.301779E+001	  2.035732E+001	  1.778747E+001	  1.513648E+001	  1.244603E+001	  9.895786E+000	  7.211421E+000	  4.001517E+000	  8.181375E-001
         1.7500	  3.737411E+001	  3.637579E+001	  3.539413E+001	  3.472648E+001	  3.439561E+001	  3.450348E+001	  3.508802E+001	  3.597574E+001	  3.714699E+001	  3.845167E+001	  3.936970E+001	  3.992865E+001	  4.023888E+001	  4.034070E+001	  4.023202E+001	  3.987198E+001	  3.907902E+001	  3.791012E+001	  3.635079E+001	  3.472490E+001	  3.328280E+001	  3.201369E+001	  3.077146E+001	  2.929276E+001	  2.719374E+001	  2.487428E+001	  2.235316E+001	  1.987186E+001	  1.721745E+001	  1.440324E+001	  1.166573E+001	  8.768503E+000	  5.328780E+000	  1.965067E+000
         1.8750	  3.731124E+001	  3.628693E+001	  3.524654E+001	  3.448250E+001	  3.400637E+001	  3.393062E+001	  3.434708E+001	  3.514442E+001	  3.629473E+001	  3.764107E+001	  3.857189E+001	  3.904799E+001	  3.921931E+001	  3.921959E+001	  3.905667E+001	  3.858361E+001	  3.774217E+001	  3.659731E+001	  3.484098E+001	  3.257855E+001	  3.074513E+001	  2.941163E+001	  2.844928E+001	  2.715068E+001	  2.499776E+001	  2.266419E+001	  2.019512E+001	  1.781848E+001	  1.535261E+001	  1.280965E+001	  1.034986E+001	  7.717356E+000	  4.535754E+000	  1.367674E+000
         2.0000	  3.704662E+001	  3.600897E+001	  3.494068E+001	  3.413106E+001	  3.358626E+001	  3.341876E+001	  3.374270E+001	  3.447021E+001	  3.557583E+001	  3.691457E+001	  3.783194E+001	  3.825390E+001	  3.834279E+001	  3.829461E+001	  3.815791E+001	  3.780762E+001	  3.708593E+001	  3.599340E+001	  3.419703E+001	  3.181076E+001	  2.989659E+001	  2.855373E+001	  2.765922E+001	  2.638129E+001	  2.417476E+001	  2.179764E+001	  1.929508E+001	  1.689998E+001	  1.444332E+001	  1.194173E+001	  9.534480E+000	  6.955851E+000	  3.829006E+000	  7.029716E-001
         2.1250	  3.688309E+001	  3.586794E+001	  3.484722E+001	  3.411286E+001	  3.367463E+001	  3.363637E+001	  3.406799E+001	  3.485533E+001	  3.598186E+001	  3.728575E+001	  3.818058E+001	  3.864519E+001	  3.884167E+001	  3.890613E+001	  3.874560E+001	  3.823177E+001	  3.739485E+001	  3.623990E+001	  3.432861E+001	  3.189564E+001	  2.991244E+001	  2.847826E+001	  2.749435E+001	  2.616779E+001	  2.392667E+001	  2.151489E+001	  1.897689E+001	  1.655450E+001	  1.408217E+001	  1.157960E+001	  9.180676E+000	  6.614209E+000	  3.501176E+000	  3.855736E-001
         2.2500	  3.687198E+001	  3.587335E+001	  3.489439E+001	  3.423177E+001	  3.390566E+001	  3.400908E+001	  3.457545E+001	  3.544657E+001	  3.660028E+001	  3.787911E+001	  3.876840E+001	  3.928096E+001	  3.953416E+001	  3.959013E+001	  3.945502E+001	  3.908187E+001	  3.834996E+001	  3.725481E+001	  3.575522E+001	  3.412694E+001	  3.268087E+001	  3.140375E+001	  3.014536E+001	  2.866135E+001	  2.657754E+001	  2.427908E+001	  2.178128E+001	  1.932261E+001	  1.668744E+001	  1.388288E+001	  1.114420E+001	  8.237510E+000	  4.779144E+000	  1.392677E+000
         2.3750	  3.691108E+001	  3.592674E+001	  3.497749E+001	  3.436026E+001	  3.409161E+001	  3.424346E+001	  3.482777E+001	  3.568438E+001	  3.679275E+001	  3.803560E+001	  3.905808E+001	  3.981861E+001	  4.031823E+001	  4.045085E+001	  4.018015E+001	  3.942113E+001	  3.814588E+001	  3.666381E+001	  3.505917E+001	  3.341526E+001	  3.195062E+001	  3.067434E+001	  2.944137E+001	  2.793589E+001	  2.574737E+001	  2.332704E+001	  2.070220E+001	  1.813514E+001	  1.542743E+001	  1.261391E+001	  9.922610E+000	  7.101443E+000	  3.764458E+000	  4.967982E-001
         2.5000	  3.698086E+001	  3.601882E+001	  3.509841E+001	  3.449790E+001	  3.419926E+001	  3.424644E+001	  3.464898E+001	  3.528544E+001	  3.612487E+001	  3.712656E+001	  3.809309E+001	  3.887076E+001	  3.925712E+001	  3.913331E+001	  3.856010E+001	  3.745540E+001	  3.589136E+001	  3.434389E+001	  3.274410E+001	  3.113079E+001	  2.977008E+001	  2.873612E+001	  2.784733E+001	  2.648831E+001	  2.424821E+001	  2.178810E+001	  1.915601E+001	  1.662412E+001	  1.402400E+001	  1.139239E+001	  8.893937E+000	  6.253519E+000	  3.083056E+000	 -7.059991E-002
         2.6250	  3.707840E+001	  3.618771E+001	  3.536940E+001	  3.484914E+001	  3.459756E+001	  3.462317E+001	  3.489503E+001	  3.530509E+001	  3.583626E+001	  3.645026E+001	  3.701100E+001	  3.739813E+001	  3.711872E+001	  3.610849E+001	  3.459565E+001	  3.298991E+001	  3.132358E+001	  2.976082E+001	  2.818345E+001	  2.675401E+001	  2.589009E+001	  2.573120E+001	  2.576493E+001	  2.476441E+001	  2.251694E+001	  2.008540E+001	  1.755193E+001	  1.517667E+001	  1.281644E+001	  1.047045E+001	  8.209576E+000	  5.752238E+000	  2.722492E+000	 -3.494167E-001
         2.7500	  3.717699E+001	  3.632916E+001	  3.557849E+001	  3.513098E+001	  3.493858E+001	  3.497583E+001	  3.517616E+001	  3.540037E+001	  3.554248E+001	  3.550718E+001	  3.516897E+001	  3.436185E+001	  3.289758E+001	  3.133080E+001	  2.974727E+001	  2.809107E+001	  2.637718E+001	  2.484488E+001	  2.352707E+001	  2.284468E+001	  2.314373E+001	  2.416771E+001	  2.496934E+001	  2.421617E+001	  2.202158E+001	  1.965900E+001	  1.721333E+001	  1.492474E+001	  1.265309E+001	  1.038258E+001	  8.169303E+000	  5.740603E+000	  2.727748E+000	 -3.371904E-001
         2.8750	  3.741557E+001	  3.657618E+001	  3.585399E+001	  3.545878E+001	  3.531755E+001	  3.540571E+001	  3.565189E+001	  3.589330E+001	  3.599092E+001	  3.578865E+001	  3.515698E+001	  3.404961E+001	  3.242860E+001	  3.084864E+001	  2.924711E+001	  2.756437E+001	  2.582391E+001	  2.428555E+001	  2.301754E+001	  2.248248E+001	  2.296574E+001	  2.412906E+001	  2.500437E+001	  2.427298E+001	  2.208175E+001	  1.972419E+001	  1.728400E+001	  1.499981E+001	  1.273249E+001	  1.046620E+001	  8.255911E+000	  5.829150E+000	  2.817519E+000	 -2.470632E-001
         3.0000	  3.761957E+001	  3.673670E+001	  3.593957E+001	  3.545635E+001	  3.521368E+001	  3.519739E+001	  3.536073E+001	  3.556605E+001	  3.574434E+001	  3.574644E+001	  3.532224E+001	  3.433774E+001	  3.275701E+001	  3.119080E+001	  2.960357E+001	  2.794043E+001	  2.622090E+001	  2.469346E+001	  2.340933E+001	  2.281056E+001	  2.321140E+001	  2.431233E+001	  2.515729E+001	  2.441728E+001	  2.222293E+001	  1.986136E+001	  1.741667E+001	  1.512835E+001	  1.285747E+001	  1.058901E+001	  8.377862E+000	  5.950907E+000	  2.939505E+000	 -1.245941E-001
         3.1250	  3.776603E+001	  3.681516E+001	  3.589441E+001	  3.525596E+001	  3.485302E+001	  3.468915E+001	  3.476356E+001	  3.496955E+001	  3.524685E+001	  3.559686E+001	  3.586058E+001	  3.572300E+001	  3.481936E+001	  3.343287E+001	  3.187823E+001	  3.026410E+001	  2.859361E+001	  2.706421E+001	  2.563326E+001	  2.460886E+001	  2.442278E+001	  2.502414E+001	  2.559852E+001	  2.478337E+001	  2.257425E+001	  2.018855E+001	  1.771503E+001	  1.539892E+001	  1.310073E+001	  1.081156E+001	  8.590300E+000	  6.160193E+000	  3.150856E+000	  9.233470E-002
         3.2500	  3.792188E+001	  3.693444E+001	  3.596192E+001	  3.528788E+001	  3.490115E+001	  3.485320E+001	  3.517933E+001	  3.577310E+001	  3.658646E+001	  3.756521E+001	  3.852031E+001	  3.934023E+001	  3.969284E+001	  3.937958E+001	  3.851322E+001	  3.724366E+001	  3.566728E+001	  3.411792E+001	  3.251586E+001	  3.091535E+001	  2.960756E+001	  2.869395E+001	  2.797158E+001	  2.668885E+001	  2.443852E+001	  2.197009E+001	  1.934667E+001	  1.684007E+001	  1.429175E+001	  1.173636E+001	  9.312394E+000	  6.737639E+000	  3.625986E+000	  5.143374E-001
         3.3750	  3.800855E+001	  3.699508E+001	  3.598083E+001	  3.526461E+001	  3.486116E+001	  3.486241E+001	  3.530808E+001	  3.607170E+001	  3.712360E+001	  3.833496E+001	  3.934125E+001	  4.009861E+001	  4.060882E+001	  4.076527E+001	  4.058534E+001	  3.993064E+001	  3.874519E+001	  3.731019E+001	  3.571349E+001	  3.408249E+001	  3.263766E+001	  3.138811E+001	  3.018812E+001	  2.870630E+001	  2.653664E+001	  2.413746E+001	  2.153542E+001	  1.898798E+001	  1.629561E+001	  1.348973E+001	  1.079784E+001	  7.970195E+000	  4.621986E+000	  1.343092E+000
         3.5000	  3.799209E+001	  3.696712E+001	  3.592939E+001	  3.517771E+001	  3.472785E+001	  3.469324E+001	  3.514129E+001	  3.593343E+001	  3.704154E+001	  3.831535E+001	  3.923853E+001	  3.980543E+001	  4.012704E+001	  4.025571E+001	  4.015889E+001	  3.975527E+001	  3.889055E+001	  3.767315E+001	  3.613447E+001	  3.447809E+001	  3.303202E+001	  3.179685E+001	  3.062075E+001	  2.918000E+001	  2.708508E+001	  2.477434E+001	  2.227077E+001	  1.981386E+001	  1.719505E+001	  1.442648E+001	  1.173359E+001	  8.877887E+000	  5.477189E+000	  2.141065E+000
         3.6250	  3.798219E+001	  3.695306E+001	  3.590488E+001	  3.513482E+001	  3.465558E+001	  3.458443E+001	  3.500591E+001	  3.578960E+001	  3.690138E+001	  3.817873E+001	  3.905897E+001	  3.954757E+001	  3.978695E+001	  3.986449E+001	  3.972897E+001	  3.931021E+001	  3.860010E+001	  3.757634E+001	  3.606624E+001	  3.432117E+001	  3.283457E+001	  3.160980E+001	  3.049327E+001	  2.909769E+001	  2.702172E+001	  2.474140E+001	  2.228240E+001	  1.987604E+001	  1.731637E+001	  1.460954E+001	  1.196774E+001	  9.152866E+000	  5.784283E+000	  2.466482E+000
         3.7500	  3.805917E+001	  3.703660E+001	  3.599929E+001	  3.524236E+001	  3.477884E+001	  3.471989E+001	  3.514603E+001	  3.593220E+001	  3.704842E+001	  3.832928E+001	  3.921803E+001	  3.971338E+001	  3.994768E+001	  4.002354E+001	  3.987789E+001	  3.943817E+001	  3.876312E+001	  3.777125E+001	  3.627037E+001	  3.455957E+001	  3.309635E+001	  3.187818E+001	  3.075100E+001	  2.934785E+001	  2.727458E+001	  2.499511E+001	  2.253395E+001	  2.012286E+001	  1.755439E+001	  1.483455E+001	  1.217900E+001	  9.350673E+000	  5.968738E+000	  2.640863E+000
         3.8750	  3.797237E+001	  3.696226E+001	  3.595216E+001	  3.523742E+001	  3.483544E+001	  3.484838E+001	  3.533290E+001	  3.615245E+001	  3.727748E+001	  3.855420E+001	  3.947886E+001	  4.005636E+001	  4.038943E+001	  4.050727E+001	  4.042179E+001	  4.009730E+001	  3.932016E+001	  3.814878E+001	  3.657192E+001	  3.495650E+001	  3.353452E+001	  3.230197E+001	  3.110840E+001	  2.965229E+001	  2.755149E+001	  2.523218E+001	  2.271395E+001	  2.023866E+001	  1.759636E+001	  1.480061E+001	  1.208264E+001	  9.204610E+000	  5.783868E+000	  2.434012E+000
         4.0000	  3.770902E+001	  3.671588E+001	  3.574116E+001	  3.508013E+001	  3.474959E+001	  3.483155E+001	  3.534957E+001	  3.616432E+001	  3.725462E+001	  3.850399E+001	  3.954302E+001	  4.031814E+001	  4.083849E+001	  4.102007E+001	  4.088168E+001	  4.025910E+001	  3.907290E+001	  3.758136E+001	  3.598556E+001	  3.435992E+001	  3.292266E+001	  3.168596E+001	  3.049779E+001	  2.901619E+001	  2.684133E+001	  2.443963E+001	  2.183430E+001	  1.928458E+001	  1.659203E+001	  1.378740E+001	  1.109639E+001	  8.268724E+000	  4.918664E+000	  1.635406E+000
         4.1250	  3.758156E+001	  3.660495E+001	  3.565638E+001	  3.502304E+001	  3.470529E+001	  3.474996E+001	  3.517944E+001	  3.587996E+001	  3.681014E+001	  3.788971E+001	  3.892050E+001	  3.983914E+001	  4.052353E+001	  4.063065E+001	  4.011043E+001	  3.895240E+001	  3.739380E+001	  3.585231E+001	  3.425563E+001	  3.263508E+001	  3.124405E+001	  3.014195E+001	  2.915839E+001	  2.775123E+001	  2.550562E+001	  2.303680E+001	  2.038551E+001	  1.782715E+001	  1.519003E+001	  1.251482E+001	  9.978483E+000	  7.306985E+000	  4.110089E+000	  9.378291E-001
         4.2500	  3.745693E+001	  3.651410E+001	  3.561466E+001	  3.502190E+001	  3.469904E+001	  3.467629E+001	  3.496417E+001	  3.544931E+001	  3.609397E+001	  3.690601E+001	  3.772638E+001	  3.829968E+001	  3.828558E+001	  3.755319E+001	  3.633175E+001	  3.475534E+001	  3.310024E+001	  3.155206E+001	  2.997619E+001	  2.849645E+001	  2.749062E+001	  2.710444E+001	  2.693165E+001	  2.585632E+001	  2.360312E+001	  2.116013E+001	  1.860140E+001	  1.619230E+001	  1.378793E+001	  1.139601E+001	  9.100511E+000	  6.618207E+000	  3.569745E+000	  4.860816E-001
         4.3750	  3.754466E+001	  3.662991E+001	  3.576709E+001	  3.519111E+001	  3.484263E+001	  3.473958E+001	  3.486621E+001	  3.510387E+001	  3.540031E+001	  3.574075E+001	  3.599458E+001	  3.592472E+001	  3.513084E+001	  3.378620E+001	  3.223130E+001	  3.061917E+001	  2.895185E+001	  2.742375E+001	  2.598687E+001	  2.493892E+001	  2.471255E+001	  2.527091E+001	  2.580336E+001	  2.496515E+001	  2.274984E+001	  2.036449E+001	  1.789003E+001	  1.557417E+001	  1.327607E+001	  1.098305E+001	  8.754395E+000	  6.314712E+000	  3.292668E+000	  2.204786E-001
         4.5000	  3.751431E+001	  3.663439E+001	  3.583271E+001	  3.533474E+001	  3.507800E+001	  3.505696E+001	  3.523799E+001	  3.548778E+001	  3.575685E+001	  3.596510E+001	  3.589088E+001	  3.529576E+001	  3.400741E+001	  3.248627E+001	  3.091706E+001	  2.928023E+001	  2.758265E+001	  2.604404E+001	  2.466116E+001	  2.380872E+001	  2.388903E+001	  2.473582E+001	  2.543255E+001	  2.463759E+001	  2.242660E+001	  2.005431E+001	  1.759645E+001	  1.529763E+001	  1.301763E+001	  1.073887E+001	  8.516717E+000	  6.077918E+000	  3.052057E+000	 -2.703454E-002
         4.6250	  3.736899E+001	  3.648704E+001	  3.568179E+001	  3.517969E+001	  3.491437E+001	  3.487153E+001	  3.502121E+001	  3.524007E+001	  3.547528E+001	  3.566853E+001	  3.560870E+001	  3.503153E+001	  3.373964E+001	  3.221987E+001	  3.065066E+001	  2.901482E+001	  2.732026E+001	  2.578789E+001	  2.441799E+001	  2.358852E+001	  2.369425E+001	  2.455889E+001	  2.526130E+001	  2.446465E+001	  2.225124E+001	  1.987875E+001	  1.742008E+001	  1.512054E+001	  1.284019E+001	  1.056077E+001	  8.337110E+000	  5.895979E+000	  2.866659E+000	 -2.164469E-001
         4.7500	  3.712224E+001	  3.620447E+001	  3.534249E+001	  3.478072E+001	  3.446594E+001	  3.439405E+001	  3.455635E+001	  3.484112E+001	  3.520210E+001	  3.567071E+001	  3.614206E+001	  3.636006E+001	  3.592872E+001	  3.485960E+001	  3.339223E+001	  3.178629E+001	  3.012439E+001	  2.858263E+001	  2.706895E+001	  2.579945E+001	  2.520758E+001	  2.537253E+001	  2.564263E+001	  2.471774E+001	  2.248250E+001	  2.007297E+001	  1.756552E+001	  1.521535E+001	  1.288149E+001	  1.055747E+001	  8.308075E+000	  5.854327E+000	  2.821803E+000	 -2.573724E-001
         4.8750	  3.701540E+001	  3.605996E+001	  3.514885E+001	  3.455720E+001	  3.426412E+001	  3.431290E+001	  3.471069E+001	  3.533428E+001	  3.614740E+001	  3.711564E+001	  3.805494E+001	  3.885919E+001	  3.919405E+001	  3.876260E+001	  3.773007E+001	  3.637722E+001	  3.482986E+001	  3.327758E+001	  3.167090E+001	  3.007249E+001	  2.878526E+001	  2.792115E+001	  2.725777E+001	  2.599455E+001	  2.373631E+001	  2.126585E+001	  1.864755E+001	  1.615408E+001	  1.362947E+001	  1.110310E+001	  8.702300E+000	  6.143634E+000	  3.041393E+000	 -6.831231E-002
         5.0000	  3.692588E+001	  3.594244E+001	  3.499284E+001	  3.437204E+001	  3.408988E+001	  3.421764E+001	  3.476989E+001	  3.559421E+001	  3.666209E+001	  3.786903E+001	  3.890312E+001	  3.970548E+001	  4.024072E+001	  4.036144E+001	  4.010164E+001	  3.931727E+001	  3.801468E+001	  3.653088E+001	  3.492835E+001	  3.328738E+001	  3.182950E+001	  3.056712E+001	  2.935356E+001	  2.785493E+001	  2.566063E+001	  2.323458E+001	  2.060468E+001	  1.803442E+001	  1.532750E+001	  1.252001E+001	  9.837018E+000	  7.024453E+000	  3.695749E+000	  4.337901E-001
         5.1250	  3.686822E+001	  3.587086E+001	  3.489492E+001	  3.424184E+001	  3.392791E+001	  3.404010E+001	  3.460210E+001	  3.545987E+001	  3.659330E+001	  3.786448E+001	  3.881610E+001	  3.943857E+001	  3.980412E+001	  3.992288E+001	  3.979227E+001	  3.935052E+001	  3.842108E+001	  3.711656E+001	  3.555215E+001	  3.392045E+001	  3.246727E+001	  3.118456E+001	  2.992340E+001	  2.842263E+001	  2.629706E+001	  2.394914E+001	  2.139596E+001	  1.888526E+001	  1.620596E+001	  1.337568E+001	  1.063201E+001	  7.735609E+000	  4.302333E+000	  9.464478E-001
         5.2500	  3.674971E+001	  3.574489E+001	  3.475571E+001	  3.408498E+001	  3.374992E+001	  3.385092E+001	  3.441670E+001	  3.528579E+001	  3.644320E+001	  3.773473E+001	  3.864633E+001	  3.918756E+001	  3.947281E+001	  3.955650E+001	  3.942086E+001	  3.901231E+001	  3.821031E+001	  3.707787E+001	  3.552463E+001	  3.385580E+001	  3.239208E+001	  3.112448E+001	  2.989937E+001	  2.843491E+001	  2.635027E+001	  2.405324E+001	  2.156139E+001	  1.911228E+001	  1.649275E+001	  1.370987E+001	  1.099316E+001	  8.107192E+000	  4.668588E+000	  1.296503E+000
         5.3750	  3.688597E+001	  3.587778E+001	  3.488685E+001	  3.421759E+001	  3.389162E+001	  3.401190E+001	  3.461182E+001	  3.551446E+001	  3.669728E+001	  3.800399E+001	  3.890481E+001	  3.943298E+001	  3.970400E+001	  3.977554E+001	  3.965319E+001	  3.926747E+001	  3.846347E+001	  3.731481E+001	  3.576418E+001	  3.410224E+001	  3.263454E+001	  3.135010E+001	  3.010168E+001	  2.862776E+001	  2.654190E+001	  2.423824E+001	  2.173751E+001	  1.927790E+001	  1.664531E+001	  1.384944E+001	  1.112414E+001	  8.234397E+000	  4.797905E+000	  1.433744E+000
         5.5000	  3.719391E+001	  3.618664E+001	  3.519672E+001	  3.452805E+001	  3.420216E+001	  3.431617E+001	  3.490297E+001	  3.579471E+001	  3.696576E+001	  3.827151E+001	  3.921393E+001	  3.979888E+001	  4.012879E+001	  4.024638E+001	  4.014121E+001	  3.974982E+001	  3.885439E+001	  3.757218E+001	  3.597911E+001	  3.434363E+001	  3.288154E+001	  3.157900E+001	  3.029441E+001	  2.879104E+001	  2.667663E+001	  2.433356E+001	  2.178369E+001	  1.927242E+001	  1.658620E+001	  1.374406E+001	  1.098966E+001	  8.086063E+000	  4.651511E+000	  1.302509E+000
         5.6250	  3.743239E+001	  3.642889E+001	  3.544028E+001	  3.476841E+001	  3.442938E+001	  3.451131E+001	  3.504090E+001	  3.586948E+001	  3.697120E+001	  3.822812E+001	  3.924916E+001	  3.999023E+001	  4.047503E+001	  4.064158E+001	  4.050760E+001	  3.989271E+001	  3.870192E+001	  3.718762E+001	  3.558584E+001	  3.394680E+001	  3.248172E+001	  3.119252E+001	  2.993522E+001	  2.842266E+001	  2.624884E+001	  2.384124E+001	  2.122429E+001	  1.865716E+001	  1.593696E+001	  1.309708E+001	  1.037459E+001	  7.521824E+000	  4.154225E+000	  8.654518E-001
         5.7500	  3.769258E+001	  3.669327E+001	  3.570343E+001	  3.501511E+001	  3.462970E+001	  3.460898E+001	  3.499242E+001	  3.567341E+001	  3.661362E+001	  3.773168E+001	  3.878668E+001	  3.968182E+001	  4.032347E+001	  4.049054E+001	  4.017105E+001	  3.923365E+001	  3.776373E+001	  3.622030E+001	  3.462153E+001	  3.298878E+001	  3.155444E+001	  3.035040E+001	  2.922257E+001	  2.775486E+001	  2.553120E+001	  2.307726E+001	  2.042570E+001	  1.784743E+001	  1.515785E+001	  1.239881E+001	  9.777098E+000	  7.028732E+000	  3.764666E+000	  5.497838E-001
         5.8750	  3.799037E+001	  3.700220E+001	  3.602656E+001	  3.534471E+001	  3.494264E+001	  3.486050E+001	  3.513183E+001	  3.566378E+001	  3.640751E+001	  3.732322E+001	  3.825146E+001	  3.913502E+001	  3.970894E+001	  3.941573E+001	  3.832333E+001	  3.673965E+001	  3.509071E+001	  3.354469E+001	  3.194283E+001	  3.035064E+001	  2.908046E+001	  2.825525E+001	  2.764333E+001	  2.639928E+001	  2.412715E+001	  2.164157E+001	  1.901311E+001	  1.651868E+001	  1.400855E+001	  1.151320E+001	  9.147299E+000	  6.622257E+000	  3.552131E+000	  4.656862E-001
         6.0000	  3.824203E+001	  3.726896E+001	  3.631119E+001	  3.563634E+001	  3.521553E+001	  3.507141E+001	  3.522936E+001	  3.559797E+001	  3.611890E+001	  3.678993E+001	  3.745834E+001	  3.771539E+001	  3.712204E+001	  3.583193E+001	  3.429700E+001	  3.269374E+001	  3.102690E+001	  2.947112E+001	  2.793146E+001	  2.662164E+001	  2.598647E+001	  2.612520E+001	  2.641501E+001	  2.552235E+001	  2.330151E+001	  2.089144E+001	  1.838996E+001	  1.604668E+001	  1.372064E+001	  1.141117E+001	  9.182797E+000	  6.754963E+000	  3.755946E+000	  7.121000E-001
         6.1250	  3.823997E+001	  3.727722E+001	  3.633153E+001	  3.566119E+001	  3.522301E+001	  3.502400E+001	  3.507349E+001	  3.527074E+001	  3.554080E+001	  3.590177E+001	  3.615406E+001	  3.589374E+001	  3.479251E+001	  3.330283E+001	  3.174712E+001	  3.013358E+001	  2.846668E+001	  2.695605E+001	  2.558631E+001	  2.470598E+001	  2.471865E+001	  2.550033E+001	  2.618573E+001	  2.540984E+001	  2.321219E+001	  2.083727E+001	  1.837746E+001	  1.607424E+001	  1.378834E+001	  1.151018E+001	  9.297551E+000	  6.874830E+000	  3.872940E+000	  8.210265E-001
         6.2500	  3.820537E+001	  3.725853E+001	  3.633839E+001	  3.569299E+001	  3.526098E+001	  3.505533E+001	  3.507454E+001	  3.522041E+001	  3.543304E+001	  3.573550E+001	  3.597209E+001	  3.580095E+001	  3.484426E+001	  3.341236E+001	  3.185685E+001	  3.024695E+001	  2.858890E+001	  2.709053E+001	  2.573600E+001	  2.486883E+001	  2.488511E+001	  2.565775E+001	  2.631172E+001	  2.550728E+001	  2.329633E+001	  2.091949E+001	  1.845474E+001	  1.614792E+001	  1.385939E+001	  1.157457E+001	  9.350234E+000	  6.911855E+000	  3.888620E+000	  8.134216E-001